QE simulations for DPPA started at Thu Dec  1 11:43:25 PST 2022 by lphillips1

     Program PWSCF v.6.7MaX starts on  1Dec2022 at 11:43:26 

     This program is part of the open-source Quantum ESPRESSO suite
     for quantum simulation of materials; please cite
         "P. Giannozzi et al., J. Phys.:Condens. Matter 21 395502 (2009);
         "P. Giannozzi et al., J. Phys.:Condens. Matter 29 465901 (2017);
          URL http://www.quantum-espresso.org", 
     in publications or presentations arising from this work. More details at
     http://www.quantum-espresso.org/quote

     Parallel version (MPI), running on    16 processors

     MPI processes distributed on     1 nodes
     R & G space division:  proc/nbgrp/npool/nimage =      16
     Reading input from DPPA.in

     Current dimensions of program PWSCF are:
     Max number of different atomic species (ntypx) = 10
     Max number of k-points (npk) =  40000
     Max angular momentum in pseudopotentials (lmaxx) =  3

     Subspace diagonalization in iterative solution of the eigenvalue problem:
     one sub-group per band group will be used
     scalapack distributed-memory algorithm (size of sub-group:  4*  4 procs)


     Parallelization info
     --------------------
     sticks:   dense  smooth     PW     G-vecs:    dense   smooth      PW
     Min        1199     480    119               124917    31616    3941
     Max        1200     481    122               124922    31619    3943
     Sum       19189    7685   1917              1998697   505887   63077



     bravais-lattice index     =            1
     lattice parameter (alat)  =      28.3459  a.u.
     unit-cell volume          =   22775.6289 (a.u.)^3
     number of atoms/cell      =           71
     number of atomic types    =            3
     number of electrons       =       204.00
     number of Kohn-Sham states=          122
     kinetic-energy cutoff     =      30.0000  Ry
     charge density cutoff     =     300.0000  Ry
     scf convergence threshold =      1.0E-08
     mixing beta               =       0.3000
     number of iterations used =            8  plain     mixing
     energy convergence thresh.=      1.0E-04
     force convergence thresh. =      1.0E-03
     Exchange-correlation=  SLA  PW   PBX  PBC
                           (   1   4   3   4   0   0   0)
     nstep                     =           50


     celldm(1)=  28.345892  celldm(2)=   0.000000  celldm(3)=   0.000000
     celldm(4)=   0.000000  celldm(5)=   0.000000  celldm(6)=   0.000000

     crystal axes: (cart. coord. in units of alat)
               a(1) = (   1.000000   0.000000   0.000000 )  
               a(2) = (   0.000000   1.000000   0.000000 )  
               a(3) = (   0.000000   0.000000   1.000000 )  

     reciprocal axes: (cart. coord. in units 2 pi/alat)
               b(1) = (  1.000000  0.000000  0.000000 )  
               b(2) = (  0.000000  1.000000  0.000000 )  
               b(3) = (  0.000000  0.000000  1.000000 )  


     PseudoPot. # 1 for C  read from file:
     /expanse/lustre/projects/csd741/tpascal/nano110/qe/pseudo/c_pbe_v1.2.uspp.F.UPF
     MD5 check sum: d1aef80898a10debaa0f26306b886e00
     Pseudo is Ultrasoft + core correction, Zval =  4.0
     Generated by new atomic code, or converted to UPF format
     Using radial grid of  721 points,  4 beta functions with: 
                l(1) =   0
                l(2) =   0
                l(3) =   1
                l(4) =   1
     Q(r) pseudized with  8 coefficients,  rinner =    1.100   1.100   1.100


     PseudoPot. # 2 for O  read from file:
     /expanse/lustre/projects/csd741/tpascal/nano110/qe/pseudo/o_pbe_v1.2.uspp.F.UPF
     MD5 check sum: 734c27235a0248c51dbae37a1fbe46ec
     Pseudo is Ultrasoft + core correction, Zval =  6.0
     Generated by new atomic code, or converted to UPF format
     Using radial grid of  737 points,  5 beta functions with: 
                l(1) =   0
                l(2) =   0
                l(3) =   1
                l(4) =   1
                l(5) =   2
     Q(r) pseudized with  8 coefficients,  rinner =    0.900   0.900   0.900
                                                       0.900   0.900

     PseudoPot. # 3 for H  read from file:
     /expanse/lustre/projects/csd741/tpascal/nano110/qe/pseudo/h_pbe_v1.4.uspp.F.UPF
     MD5 check sum: 761ae9a214b05c3daf00ab9f6b793d6f
     Pseudo is Ultrasoft, Zval =  1.0
     Generated by new atomic code, or converted to UPF format
     Using radial grid of  615 points,  2 beta functions with: 
                l(1) =   0
                l(2) =   0
     Q(r) pseudized with  8 coefficients,  rinner =    0.700

     atomic species   valence    mass     pseudopotential
        C              4.00    12.00800     C ( 1.00)
        O              6.00    15.99900     O ( 1.00)
        H              1.00     1.00784     H ( 1.00)

     No symmetry found


                                    s                        frac. trans.

      isym =  1     identity                                     

 cryst.   s( 1) = (     1          0          0      )
                  (     0          1          0      )
                  (     0          0          1      )

 cart.    s( 1) = (  1.0000000  0.0000000  0.0000000 )
                  (  0.0000000  1.0000000  0.0000000 )
                  (  0.0000000  0.0000000  1.0000000 )


     point group C_1 (1)    
     there are  1 classes
     the character table:

       E    
A      1.00

     the symmetry operations in each class and the name of the first element:

     E        1
          identity                                               

   Cartesian axes

     site n.     atom                  positions (alat units)
         1           C   tau(   1) = (   0.0881400  -0.0635067   0.0075333  )
         2           C   tau(   2) = (   0.1732200  -0.0375533   0.0159133  )
         3           C   tau(   3) = (   0.2069400   0.0316267   0.0786867  )
         4           C   tau(   4) = (   0.1529133   0.0756667   0.1357533  )
         5           O   tau(   5) = (   0.2963067   0.0480467   0.0754333  )
         6           C   tau(   6) = (   0.3438067   0.1060733   0.1292067  )
         7           C   tau(   7) = (   0.4446867   0.1052600   0.1056933  )
         8           C   tau(   8) = (   0.4822800   0.0090000   0.1128200  )
         9           C   tau(   9) = (   0.4598333   0.1412600   0.0097200  )
        10           C   tau(  10) = (   0.4935667   0.1672533   0.1726667  )
        11           O   tau(  11) = (   0.5842067   0.1687333   0.1560600  )
        12           C   tau(  12) = (   0.6437600   0.2170400   0.2039600  )
        13           O   tau(  13) = (   0.6191133   0.2633867   0.2664533  )
        14           C   tau(  14) = (   0.7390200   0.2126333   0.1793000  )
        15           C   tau(  15) = (   0.8021800   0.2580000   0.2228933  )
        16           O   tau(  16) = (   0.4153000   0.0873333  -0.0534800  )
        17           C   tau(  17) = (   0.4520200   0.1005933  -0.1392333  )
        18           C   tau(  18) = (   0.3962333   0.0509267  -0.2109533  )
        19           C   tau(  19) = (   0.3891267  -0.0495733  -0.1871067  )
        20           C   tau(  20) = (   0.3013667   0.0921267  -0.2177333  )
        21           O   tau(  21) = (   0.2536333   0.0836200  -0.1376667  )
        22           C   tau(  22) = (   0.4437067   0.0621467  -0.3022267  )
        23           O   tau(  23) = (   0.3973267   0.0186267  -0.3689267  )
        24           C   tau(  24) = (   0.4229533   0.0168200  -0.4556200  )
        25           O   tau(  25) = (   0.4908467   0.0551467  -0.4797667  )
        26           C   tau(  26) = (   0.3673800  -0.0323267  -0.5204067  )
        27           C   tau(  27) = (   0.3876867  -0.0375533  -0.6070600  )
        28           O   tau(  28) = (   0.4728067  -0.0876733  -0.1811600  )
        29           C   tau(  29) = (   0.4876400  -0.1743400  -0.1601133  )
        30           O   tau(  30) = (   0.4252733  -0.2248267  -0.1452267  )
        31           C   tau(  31) = (   0.5805667  -0.2065867  -0.1551600  )
        32           C   tau(  32) = (   0.6012533  -0.2908333  -0.1346200  )
        33           O   tau(  33) = (   0.4707800  -0.0243667   0.1979200  )
        34           C   tau(  34) = (   0.4969067  -0.1069600   0.2238400  )
        35           O   tau(  35) = (   0.5332000  -0.1576000   0.1711067  )
        36           C   tau(  36) = (   0.4806667  -0.1347067   0.3169333  )
        37           C   tau(  37) = (   0.5041867  -0.2148667   0.3480667  )
        38           H   tau(  38) = (   0.0712933  -0.1147667  -0.0406733  )
        39           H   tau(  39) = (   0.0342933  -0.0358067   0.0467067  )
        40           H   tau(  40) = (   0.2219933  -0.0697467  -0.0267667  )
        41           H   tau(  41) = (   0.0819333   0.0635667   0.1394333  )
        42           H   tau(  42) = (   0.1784000   0.1258000   0.1811133  )
        43           H   tau(  43) = (   0.3348800   0.0853267   0.1998800  )
        44           H   tau(  44) = (   0.3171800   0.1748867   0.1214533  )
        45           H   tau(  45) = (   0.5545467   0.0088000   0.0960067  )
        46           H   tau(  46) = (   0.4477400  -0.0354267   0.0644733  )
        47           H   tau(  47) = (   0.5332133   0.1423533  -0.0027000  )
        48           H   tau(  48) = (   0.4339133   0.2106333   0.0049267  )
        49           H   tau(  49) = (   0.4820933   0.1435800   0.2420600  )
        50           H   tau(  50) = (   0.4665533   0.2361733   0.1672333  )
        51           H   tau(  51) = (   0.7583600   0.1707800   0.1234733  )
        52           H   tau(  52) = (   0.7861333   0.3006867   0.2791000  )
        53           H   tau(  53) = (   0.8712800   0.2525133   0.2021667  )
        54           H   tau(  54) = (   0.5212667   0.0736733  -0.1403067  )
        55           H   tau(  55) = (   0.4538267   0.1729133  -0.1565267  )
        56           H   tau(  56) = (   0.3494400  -0.0852067  -0.2386733  )
        57           H   tau(  57) = (   0.3543733  -0.0577133  -0.1221600  )
        58           H   tau(  58) = (   0.2622600   0.0582733  -0.2707533  )
        59           H   tau(  59) = (   0.3056867   0.1635800  -0.2380867  )
        60           H   tau(  60) = (   0.2566867   0.1419400  -0.1065200  )
        61           H   tau(  61) = (   0.5124933   0.0345467  -0.2985800  )
        62           H   tau(  62) = (   0.4488533   0.1342533  -0.3190733  )
        63           H   tau(  63) = (   0.3076400  -0.0655133  -0.4965067  )
        64           H   tau(  64) = (   0.4466867  -0.0055067  -0.6340867  )
        65           H   tau(  65) = (   0.3446667  -0.0745067  -0.6519800  )
        66           H   tau(  66) = (   0.6341333  -0.1598133  -0.1687333  )
        67           H   tau(  67) = (   0.5500467  -0.3400000  -0.1204933  )
        68           H   tau(  68) = (   0.6706000  -0.3112467  -0.1318133  )
        69           H   tau(  69) = (   0.4482933  -0.0879867   0.3617667  )
        70           H   tau(  70) = (   0.5367000  -0.2638200   0.3058133  )
        71           H   tau(  71) = (   0.4907800  -0.2320800   0.4170467  )

   Crystallographic axes

     site n.     atom                  positions (cryst. coord.)
         1           C   tau(   1) = (  0.0881400 -0.0635067  0.0075333  )
         2           C   tau(   2) = (  0.1732200 -0.0375533  0.0159133  )
         3           C   tau(   3) = (  0.2069400  0.0316267  0.0786867  )
         4           C   tau(   4) = (  0.1529133  0.0756667  0.1357533  )
         5           O   tau(   5) = (  0.2963067  0.0480467  0.0754333  )
         6           C   tau(   6) = (  0.3438067  0.1060733  0.1292067  )
         7           C   tau(   7) = (  0.4446867  0.1052600  0.1056933  )
         8           C   tau(   8) = (  0.4822800  0.0090000  0.1128200  )
         9           C   tau(   9) = (  0.4598333  0.1412600  0.0097200  )
        10           C   tau(  10) = (  0.4935667  0.1672533  0.1726667  )
        11           O   tau(  11) = (  0.5842067  0.1687333  0.1560600  )
        12           C   tau(  12) = (  0.6437600  0.2170400  0.2039600  )
        13           O   tau(  13) = (  0.6191133  0.2633867  0.2664533  )
        14           C   tau(  14) = (  0.7390200  0.2126333  0.1793000  )
        15           C   tau(  15) = (  0.8021800  0.2580000  0.2228933  )
        16           O   tau(  16) = (  0.4153000  0.0873333 -0.0534800  )
        17           C   tau(  17) = (  0.4520200  0.1005933 -0.1392333  )
        18           C   tau(  18) = (  0.3962333  0.0509267 -0.2109533  )
        19           C   tau(  19) = (  0.3891267 -0.0495733 -0.1871067  )
        20           C   tau(  20) = (  0.3013667  0.0921267 -0.2177333  )
        21           O   tau(  21) = (  0.2536333  0.0836200 -0.1376667  )
        22           C   tau(  22) = (  0.4437067  0.0621467 -0.3022267  )
        23           O   tau(  23) = (  0.3973267  0.0186267 -0.3689267  )
        24           C   tau(  24) = (  0.4229533  0.0168200 -0.4556200  )
        25           O   tau(  25) = (  0.4908467  0.0551467 -0.4797667  )
        26           C   tau(  26) = (  0.3673800 -0.0323267 -0.5204067  )
        27           C   tau(  27) = (  0.3876867 -0.0375533 -0.6070600  )
        28           O   tau(  28) = (  0.4728067 -0.0876733 -0.1811600  )
        29           C   tau(  29) = (  0.4876400 -0.1743400 -0.1601133  )
        30           O   tau(  30) = (  0.4252733 -0.2248267 -0.1452267  )
        31           C   tau(  31) = (  0.5805667 -0.2065867 -0.1551600  )
        32           C   tau(  32) = (  0.6012533 -0.2908333 -0.1346200  )
        33           O   tau(  33) = (  0.4707800 -0.0243667  0.1979200  )
        34           C   tau(  34) = (  0.4969067 -0.1069600  0.2238400  )
        35           O   tau(  35) = (  0.5332000 -0.1576000  0.1711067  )
        36           C   tau(  36) = (  0.4806667 -0.1347067  0.3169333  )
        37           C   tau(  37) = (  0.5041867 -0.2148667  0.3480667  )
        38           H   tau(  38) = (  0.0712933 -0.1147667 -0.0406733  )
        39           H   tau(  39) = (  0.0342933 -0.0358067  0.0467067  )
        40           H   tau(  40) = (  0.2219933 -0.0697467 -0.0267667  )
        41           H   tau(  41) = (  0.0819333  0.0635667  0.1394333  )
        42           H   tau(  42) = (  0.1784000  0.1258000  0.1811133  )
        43           H   tau(  43) = (  0.3348800  0.0853267  0.1998800  )
        44           H   tau(  44) = (  0.3171800  0.1748867  0.1214533  )
        45           H   tau(  45) = (  0.5545467  0.0088000  0.0960067  )
        46           H   tau(  46) = (  0.4477400 -0.0354267  0.0644733  )
        47           H   tau(  47) = (  0.5332133  0.1423533 -0.0027000  )
        48           H   tau(  48) = (  0.4339133  0.2106333  0.0049267  )
        49           H   tau(  49) = (  0.4820933  0.1435800  0.2420600  )
        50           H   tau(  50) = (  0.4665533  0.2361733  0.1672333  )
        51           H   tau(  51) = (  0.7583600  0.1707800  0.1234733  )
        52           H   tau(  52) = (  0.7861333  0.3006867  0.2791000  )
        53           H   tau(  53) = (  0.8712800  0.2525133  0.2021667  )
        54           H   tau(  54) = (  0.5212667  0.0736733 -0.1403067  )
        55           H   tau(  55) = (  0.4538267  0.1729133 -0.1565267  )
        56           H   tau(  56) = (  0.3494400 -0.0852067 -0.2386733  )
        57           H   tau(  57) = (  0.3543733 -0.0577133 -0.1221600  )
        58           H   tau(  58) = (  0.2622600  0.0582733 -0.2707533  )
        59           H   tau(  59) = (  0.3056867  0.1635800 -0.2380867  )
        60           H   tau(  60) = (  0.2566867  0.1419400 -0.1065200  )
        61           H   tau(  61) = (  0.5124933  0.0345467 -0.2985800  )
        62           H   tau(  62) = (  0.4488533  0.1342533 -0.3190733  )
        63           H   tau(  63) = (  0.3076400 -0.0655133 -0.4965067  )
        64           H   tau(  64) = (  0.4466867 -0.0055067 -0.6340867  )
        65           H   tau(  65) = (  0.3446667 -0.0745067 -0.6519800  )
        66           H   tau(  66) = (  0.6341333 -0.1598133 -0.1687333  )
        67           H   tau(  67) = (  0.5500467 -0.3400000 -0.1204933  )
        68           H   tau(  68) = (  0.6706000 -0.3112467 -0.1318133  )
        69           H   tau(  69) = (  0.4482933 -0.0879867  0.3617667  )
        70           H   tau(  70) = (  0.5367000 -0.2638200  0.3058133  )
        71           H   tau(  71) = (  0.4907800 -0.2320800  0.4170467  )

     number of k points=     1  Gaussian smearing, width (Ry)=  0.0030
                       cart. coord. in units 2pi/alat
        k(    1) = (   0.0000000   0.0000000   0.0000000), wk =   2.0000000

                       cryst. coord.
        k(    1) = (   0.0000000   0.0000000   0.0000000), wk =   2.0000000

     Dense  grid:  1998697 G-vectors     FFT dimensions: ( 160, 160, 160)

     Smooth grid:   505887 G-vectors     FFT dimensions: ( 100, 100, 100)

     Dynamical RAM for                 wfc:       7.35 MB

     Dynamical RAM for     wfc (w. buffer):       7.35 MB

     Dynamical RAM for           str. fact:       5.72 MB

     Dynamical RAM for           local pot:       0.00 MB

     Dynamical RAM for          nlocal pot:      25.25 MB

     Dynamical RAM for                qrad:       2.98 MB

     Dynamical RAM for          rho,v,vnew:      11.58 MB

     Dynamical RAM for               rhoin:       3.86 MB

     Dynamical RAM for            rho*nmix:      30.50 MB

     Dynamical RAM for           G-vectors:       7.39 MB

     Dynamical RAM for          h,s,v(r/c):       0.17 MB

     Dynamical RAM for          <psi|beta>:       0.78 MB

     Dynamical RAM for                 psi:      14.70 MB

     Dynamical RAM for                hpsi:      14.70 MB

     Dynamical RAM for                spsi:      14.70 MB

     Dynamical RAM for      wfcinit/wfcrot:      22.69 MB

     Dynamical RAM for           addusdens:     266.86 MB

     Dynamical RAM for          addusforce:     393.68 MB

     Dynamical RAM for         addusstress:     230.64 MB

     Estimated static dynamical RAM per process >     112.01 MB

     Estimated max dynamical RAM per process >     505.69 MB

     Estimated total dynamical RAM >       7.90 GB

     Initial potential from superposition of free atoms

     starting charge  203.99862, renormalised to  204.00000

     negative rho (up, down):  1.708E-03 0.000E+00
     Starting wfcs are  182 randomized atomic wfcs

     total cpu time spent up to now is        4.3 secs

     Self-consistent Calculation

     iteration #  1     ecut=    30.00 Ry     beta= 0.30
     Davidson diagonalization with overlap
     ethr =  1.00E-02,  avg # of iterations =  3.0

     negative rho (up, down):  1.537E-03 0.000E+00

     total cpu time spent up to now is        9.7 secs

     total energy              =    -693.19486182 Ry
     estimated scf accuracy    <       7.18315368 Ry

     iteration #  2     ecut=    30.00 Ry     beta= 0.30
     Davidson diagonalization with overlap
     ethr =  3.52E-03,  avg # of iterations =  2.0

     negative rho (up, down):  4.196E-03 0.000E+00

     total cpu time spent up to now is       14.5 secs

     total energy              =    -693.02957443 Ry
     estimated scf accuracy    <       1.66881422 Ry

     iteration #  3     ecut=    30.00 Ry     beta= 0.30
     Davidson diagonalization with overlap
     ethr =  8.18E-04,  avg # of iterations =  8.0

     negative rho (up, down):  5.271E-03 0.000E+00

     total cpu time spent up to now is       20.3 secs

     total energy              =    -693.14741915 Ry
     estimated scf accuracy    <       0.28224881 Ry

     iteration #  4     ecut=    30.00 Ry     beta= 0.30
     Davidson diagonalization with overlap
     ethr =  1.38E-04,  avg # of iterations = 18.0

     negative rho (up, down):  8.269E-03 0.000E+00

     total cpu time spent up to now is       26.3 secs

     total energy              =    -693.12981359 Ry
     estimated scf accuracy    <       0.08164103 Ry

     iteration #  5     ecut=    30.00 Ry     beta= 0.30
     Davidson diagonalization with overlap
     ethr =  4.00E-05,  avg # of iterations = 20.0

     negative rho (up, down):  6.942E-03 0.000E+00

     total cpu time spent up to now is       32.7 secs

     total energy              =    -693.13669974 Ry
     estimated scf accuracy    <       0.00391045 Ry

     iteration #  6     ecut=    30.00 Ry     beta= 0.30
     Davidson diagonalization with overlap
     c_bands:  1 eigenvalues not converged
     ethr =  1.92E-06,  avg # of iterations = 20.0

     negative rho (up, down):  6.069E-03 0.000E+00

     total cpu time spent up to now is       39.5 secs

     total energy              =    -693.13708506 Ry
     estimated scf accuracy    <       0.00079260 Ry

     iteration #  7     ecut=    30.00 Ry     beta= 0.30
     Davidson diagonalization with overlap
     c_bands:  1 eigenvalues not converged
     ethr =  3.89E-07,  avg # of iterations = 20.0

     negative rho (up, down):  5.586E-03 0.000E+00

     total cpu time spent up to now is       45.9 secs

     total energy              =    -693.13716280 Ry
     estimated scf accuracy    <       0.00015753 Ry

     iteration #  8     ecut=    30.00 Ry     beta= 0.30
     Davidson diagonalization with overlap
     ethr =  7.72E-08,  avg # of iterations =  2.0

     negative rho (up, down):  5.326E-03 0.000E+00

     total cpu time spent up to now is       50.7 secs

     total energy              =    -693.13717997 Ry
     estimated scf accuracy    <       0.00002913 Ry

     iteration #  9     ecut=    30.00 Ry     beta= 0.30
     Davidson diagonalization with overlap
     ethr =  1.43E-08,  avg # of iterations =  2.0

     negative rho (up, down):  5.194E-03 0.000E+00

     total cpu time spent up to now is       55.8 secs

     total energy              =    -693.13718797 Ry
     estimated scf accuracy    <       0.00000374 Ry

     iteration # 10     ecut=    30.00 Ry     beta= 0.30
     Davidson diagonalization with overlap
     ethr =  1.83E-09,  avg # of iterations =  2.0

     negative rho (up, down):  5.152E-03 0.000E+00

     total cpu time spent up to now is       60.8 secs

     total energy              =    -693.13719040 Ry
     estimated scf accuracy    <       0.00000046 Ry

     iteration # 11     ecut=    30.00 Ry     beta= 0.30
     Davidson diagonalization with overlap
     ethr =  2.24E-10,  avg # of iterations =  2.0

     negative rho (up, down):  5.144E-03 0.000E+00

     total cpu time spent up to now is       65.7 secs

     total energy              =    -693.13719139 Ry
     estimated scf accuracy    <       0.00000010 Ry

     iteration # 12     ecut=    30.00 Ry     beta= 0.30
     Davidson diagonalization with overlap
     ethr =  5.06E-11,  avg # of iterations =  2.0

     negative rho (up, down):  5.151E-03 0.000E+00

     total cpu time spent up to now is       70.9 secs

     total energy              =    -693.13719193 Ry
     estimated scf accuracy    <       0.00000001 Ry

     iteration # 13     ecut=    30.00 Ry     beta= 0.30
     Davidson diagonalization with overlap
     ethr =  6.42E-12,  avg # of iterations =  2.0

     negative rho (up, down):  5.207E-03 0.000E+00

     total cpu time spent up to now is       75.6 secs

     End of self-consistent calculation

          k = 0.0000 0.0000 0.0000 ( 63077 PWs)   bands (ev):

   -26.9748 -26.8980 -26.7221 -26.6146 -25.8718 -25.3235 -24.4757 -24.3920
   -24.3369 -24.1743 -24.0849 -20.0722 -19.7399 -19.4632 -18.8270 -18.6326
   -18.5213 -18.4487 -17.3322 -17.2340 -17.1418 -16.9528 -16.4755 -16.2415
   -15.5549 -15.5454 -14.7759 -14.4406 -14.3602 -13.9778 -13.5276 -13.1611
   -13.0876 -12.9378 -12.4587 -12.3520 -12.2580 -12.2174 -11.9142 -11.8126
   -11.7640 -11.5063 -11.4831 -11.3128 -11.2360 -11.1715 -11.1181 -10.9121
   -10.7500 -10.5658 -10.4870 -10.3911 -10.3366 -10.1260 -10.0951  -9.9328
    -9.7886  -9.7787  -9.6957  -9.5791  -9.5292  -9.3241  -9.2097  -9.1625
    -9.0608  -8.9489  -8.8418  -8.6513  -8.5704  -8.3743  -8.3124  -8.2949
    -8.2714  -8.0862  -7.9975  -7.8840  -7.8347  -7.6149  -7.5227  -7.4073
    -7.1303  -7.0615  -6.9837  -6.8598  -6.4225  -6.3489  -6.1911  -6.1741
    -6.0982  -6.0210  -5.9754  -5.9092  -5.7713  -5.6894  -5.5678  -5.3683
    -5.2708  -5.1128  -5.0275  -4.9201  -4.7705  -4.0878  -1.5738  -1.5562
    -1.3241  -1.3173  -0.6873   0.0346   0.4157   0.6194   0.6397   0.7989
     0.9061   0.9512   1.0956   1.1727   1.1989   1.3250   1.3583   1.4145
     1.4672   1.5192

     occupation numbers 
     1.0000   1.0000   1.0000   1.0000   1.0000   1.0000   1.0000   1.0000
     1.0000   1.0000   1.0000   1.0000   1.0000   1.0000   1.0000   1.0000
     1.0000   1.0000   1.0000   1.0000   1.0000   1.0000   1.0000   1.0000
     1.0000   1.0000   1.0000   1.0000   1.0000   1.0000   1.0000   1.0000
     1.0000   1.0000   1.0000   1.0000   1.0000   1.0000   1.0000   1.0000
     1.0000   1.0000   1.0000   1.0000   1.0000   1.0000   1.0000   1.0000
     1.0000   1.0000   1.0000   1.0000   1.0000   1.0000   1.0000   1.0000
     1.0000   1.0000   1.0000   1.0000   1.0000   1.0000   1.0000   1.0000
     1.0000   1.0000   1.0000   1.0000   1.0000   1.0000   1.0000   1.0000
     1.0000   1.0000   1.0000   1.0000   1.0000   1.0000   1.0000   1.0000
     1.0000   1.0000   1.0000   1.0000   1.0000   1.0000   1.0000   1.0000
     1.0000   1.0000   1.0000   1.0000   1.0000   1.0000   1.0000   1.0000
     1.0000   1.0000   1.0000   1.0000   1.0000   1.0000   0.0000   0.0000
     0.0000   0.0000   0.0000   0.0000   0.0000   0.0000   0.0000   0.0000
     0.0000   0.0000   0.0000   0.0000   0.0000   0.0000   0.0000   0.0000
     0.0000   0.0000

     the Fermi energy is    -1.9813 ev

!    total energy              =    -693.13719254 Ry
     estimated scf accuracy    <          2.8E-09 Ry
     smearing contrib. (-TS)   =      -0.00000000 Ry
     internal energy E=F+TS    =    -693.13719254 Ry

     The total energy is F=E-TS. E is the sum of the following terms:
     one-electron contribution =   -3241.02043009 Ry
     hartree contribution      =    1654.91227273 Ry
     xc contribution           =    -198.26092170 Ry
     ewald contribution        =    1091.23188653 Ry

     convergence has been achieved in  13 iterations

     negative rho (up, down):  5.207E-03 0.000E+00

     Forces acting on atoms (cartesian axes, Ry/au):

     atom    1 type  1   force =     0.01818437    0.00152336   -0.00093645
     atom    2 type  1   force =     0.01179639    0.01271290    0.01338734
     atom    3 type  1   force =    -0.02929245    0.01713146    0.02642197
     atom    4 type  1   force =     0.01000080    0.00526202    0.00214678
     atom    5 type  2   force =     0.00740266   -0.06880461   -0.06954106
     atom    6 type  1   force =    -0.00451914    0.02795434    0.04082035
     atom    7 type  1   force =     0.00001284   -0.01258013   -0.00356620
     atom    8 type  1   force =     0.01891035   -0.00173990   -0.08165714
     atom    9 type  1   force =     0.00911708   -0.00911752    0.02393141
     atom   10 type  1   force =    -0.06622500    0.01711025    0.03379328
     atom   11 type  2   force =     0.09855632   -0.03715374   -0.06855796
     atom   12 type  1   force =    -0.03011205    0.04309700    0.06118970
     atom   13 type  2   force =    -0.00712638    0.00076392    0.00043908
     atom   14 type  1   force =    -0.00365092   -0.01887607   -0.02279435
     atom   15 type  1   force =    -0.01281359   -0.00403214   -0.00265998
     atom   16 type  2   force =     0.00910631   -0.00023234   -0.00135047
     atom   17 type  1   force =     0.00206546   -0.01015604   -0.03169761
     atom   18 type  1   force =     0.00409619   -0.00870912   -0.00795082
     atom   19 type  1   force =    -0.08044107    0.00448998    0.00707581
     atom   20 type  1   force =     0.00942565   -0.00097163   -0.02116088
     atom   21 type  2   force =    -0.03087601    0.03112465    0.02635283
     atom   22 type  1   force =     0.05549432    0.04010889    0.03298294
     atom   23 type  2   force =    -0.09734742   -0.06800689   -0.03774091
     atom   24 type  1   force =     0.05073309    0.02596028   -0.02272210
     atom   25 type  2   force =     0.01405657    0.00711522    0.00016004
     atom   26 type  1   force =    -0.02282882   -0.00232007    0.06178448
     atom   27 type  1   force =    -0.09175435    0.10419228    0.04724953
     atom   28 type  2   force =     0.13065716    0.00303948   -0.00776603
     atom   29 type  1   force =    -0.06414133   -0.03632612    0.01342336
     atom   30 type  2   force =    -0.00876166   -0.00072213   -0.00077960
     atom   31 type  1   force =     0.01230146    0.02442103   -0.00722093
     atom   32 type  1   force =    -0.00807337    0.01080880   -0.00298125
     atom   33 type  2   force =    -0.03823823    0.00918474    0.12432983
     atom   34 type  1   force =     0.03259883   -0.03999214   -0.06125058
     atom   35 type  2   force =     0.00116477    0.00292371   -0.00348115
     atom   36 type  1   force =     0.05965711   -0.08121089   -0.04588199
     atom   37 type  1   force =    -0.00186410    0.01514605   -0.01517310
     atom   38 type  3   force =    -0.00421044   -0.00706394   -0.00585289
     atom   39 type  3   force =    -0.01268795    0.00614786    0.00809513
     atom   40 type  3   force =     0.01535130   -0.00024907   -0.00456699
     atom   41 type  3   force =    -0.01054043   -0.00603708   -0.00361463
     atom   42 type  3   force =     0.00556118    0.00760957    0.00715093
     atom   43 type  3   force =     0.00229913    0.00940984    0.00151365
     atom   44 type  3   force =     0.00302305    0.00153504    0.00527793
     atom   45 type  3   force =    -0.00860162    0.00146412   -0.00231932
     atom   46 type  3   force =     0.00674265    0.01043086    0.00266661
     atom   47 type  3   force =    -0.00812106    0.00234258   -0.00245015
     atom   48 type  3   force =     0.00596411    0.00194912    0.00458977
     atom   49 type  3   force =    -0.00463797    0.00590000   -0.00790064
     atom   50 type  3   force =    -0.00118379   -0.00632476    0.00493394
     atom   51 type  3   force =    -0.00094091   -0.00991504   -0.01189326
     atom   52 type  3   force =    -0.00370962    0.00623020    0.00871724
     atom   53 type  3   force =     0.01049347    0.00003794   -0.00206482
     atom   54 type  3   force =    -0.00087437    0.00849241   -0.00261880
     atom   55 type  3   force =     0.00286703   -0.00312329    0.00157501
     atom   56 type  3   force =     0.00057522    0.00642635    0.00613656
     atom   57 type  3   force =    -0.00131382    0.00437351   -0.01070862
     atom   58 type  3   force =     0.00841814   -0.00136765    0.00331951
     atom   59 type  3   force =     0.00860124   -0.01009679   -0.00110434
     atom   60 type  3   force =     0.00039250   -0.03293933   -0.00509384
     atom   61 type  3   force =    -0.00494835    0.00835423    0.00171903
     atom   62 type  3   force =     0.00478223   -0.00507977    0.00345180
     atom   63 type  3   force =    -0.00813808   -0.00834490    0.00892203
     atom   64 type  3   force =    -0.02970487    0.08345924    0.00851532
     atom   65 type  3   force =    -0.02475581    0.02085700   -0.00897178
     atom   66 type  3   force =     0.00750009    0.01318913   -0.00348180
     atom   67 type  3   force =    -0.00883608   -0.00642709    0.00230017
     atom   68 type  3   force =     0.00982532   -0.00425632    0.00104702
     atom   69 type  3   force =     0.08010686   -0.08655321   -0.01245458
     atom   70 type  3   force =     0.00585838   -0.00963254   -0.00642367
     atom   71 type  3   force =    -0.00242859   -0.00391707    0.01297033
     The non-local contrib.  to forces
     atom    1 type  1   force =    -0.00302885   -0.00101924    0.00290884
     atom    2 type  1   force =     0.05290428    0.08942817    0.09006905
     atom    3 type  1   force =     0.45694666    0.04022184   -0.06263786
     atom    4 type  1   force =     0.02143909    0.00522098   -0.00450585
     atom    5 type  2   force =    -1.00455922    0.92523566    1.31942757
     atom    6 type  1   force =    -0.16728370   -0.24021643   -0.24811185
     atom    7 type  1   force =     0.00281810    0.01210122    0.02461801
     atom    8 type  1   force =    -0.06251444   -0.09866833    0.42551220
     atom    9 type  1   force =    -0.16903548   -0.21287520   -0.15800778
     atom   10 type  1   force =     0.40090983   -0.01322179   -0.12929303
     atom   11 type  2   force =    -0.58885813    0.97561400    1.31826765
     atom   12 type  1   force =    -0.33158065   -0.10107815   -0.05885382
     atom   13 type  2   force =     0.61878299   -1.28192560   -1.72682666
     atom   14 type  1   force =    -0.13114708   -0.01793277    0.00231152
     atom   15 type  1   force =     0.00567090   -0.02572180   -0.03407163
     atom   16 type  2   force =     1.62622170    1.31030484   -0.44088152
     atom   17 type  1   force =    -0.17076605   -0.05351203    0.25921882
     atom   18 type  1   force =     0.06241319   -0.01383287   -0.02461011
     atom   19 type  1   force =     0.41616091   -0.13391721    0.00195141
     atom   20 type  1   force =    -0.11828075   -0.01525528    0.28536559
     atom   21 type  2   force =     0.98453472    1.74815325   -0.71946384
     atom   22 type  1   force =    -0.24379407   -0.19326157   -0.28182195
     atom   23 type  2   force =     1.46075771    0.85004766   -0.46691390
     atom   24 type  1   force =     0.04940643    0.10138594    0.32145519
     atom   25 type  2   force =    -1.83596996   -1.03434590    0.69405447
     atom   26 type  1   force =     0.09195158   -0.00796315    0.09298374
     atom   27 type  1   force =     0.03657511   -0.08533886    0.02799986
     atom   28 type  2   force =    -1.34297334   -1.04207095    0.31150285
     atom   29 type  1   force =    -0.22117566    0.25818320   -0.05764404
     atom   30 type  2   force =     1.66488964    1.41379284   -0.41976864
     atom   31 type  1   force =    -0.10121588    0.07348523   -0.01832904
     atom   32 type  1   force =     0.02865936    0.02634053   -0.01098140
     atom   33 type  2   force =     0.76603087   -1.03638898   -1.12181510
     atom   34 type  1   force =    -0.03036285    0.24479419   -0.23607837
     atom   35 type  2   force =    -0.99244619    1.42283727    1.40595232
     atom   36 type  1   force =     0.09647661   -0.08285987   -0.23183241
     atom   37 type  1   force =    -0.02318875    0.03552617    0.02694362
     atom   38 type  3   force =     0.04305405    0.13331243    0.12571218
     atom   39 type  3   force =     0.14142521   -0.07197571   -0.10233226
     atom   40 type  3   force =    -0.12649899    0.08519995    0.11436815
     atom   41 type  3   force =     0.18464101    0.02975706   -0.01162703
     atom   42 type  3   force =    -0.06291010   -0.12908228   -0.11764286
     atom   43 type  3   force =     0.02247290    0.05153899   -0.16917704
     atom   44 type  3   force =     0.06525977   -0.16300314    0.01780103
     atom   45 type  3   force =    -0.17467888    0.00311395    0.04182488
     atom   46 type  3   force =     0.08376577    0.10898170    0.12000098
     atom   47 type  3   force =    -0.17438642   -0.00409595    0.02688973
     atom   48 type  3   force =     0.06118861   -0.16404290    0.01294762
     atom   49 type  3   force =     0.02692004    0.05548842   -0.16988428
     atom   50 type  3   force =     0.06399457   -0.16653523    0.00944851
     atom   51 type  3   force =    -0.05264844    0.10901312    0.14570991
     atom   52 type  3   force =     0.04560192   -0.11276468   -0.14925424
     atom   53 type  3   force =    -0.18194200    0.01430145    0.05438428
     atom   54 type  3   force =    -0.16376195    0.06643204    0.00262625
     atom   55 type  3   force =    -0.00571908   -0.16905792    0.04171133
     atom   56 type  3   force =     0.09717171    0.08774259    0.12289275
     atom   57 type  3   force =     0.08646702    0.01986358   -0.15898139
     atom   58 type  3   force =     0.09655600    0.08020581    0.12924080
     atom   59 type  3   force =    -0.00666156   -0.16666224    0.05059033
     atom   60 type  3   force =    -0.00508364   -0.20271933   -0.11718659
     atom   61 type  3   force =    -0.16710014    0.06634208   -0.00727485
     atom   62 type  3   force =    -0.01520425   -0.17224492    0.04270337
     atom   63 type  3   force =     0.15637531    0.08546299   -0.06140208
     atom   64 type  3   force =    -0.16226706   -0.08920129    0.07023196
     atom   65 type  3   force =     0.11520150    0.10050047    0.11808486
     atom   66 type  3   force =    -0.14139204   -0.12084839    0.03511527
     atom   67 type  3   force =     0.13818023    0.12820373   -0.03731646
     atom   68 type  3   force =    -0.18227986    0.05369336   -0.00757897
     atom   69 type  3   force =     0.04558263   -0.08423178   -0.09277984
     atom   70 type  3   force =    -0.08606006    0.12739571    0.11470950
     atom   71 type  3   force =     0.03484266    0.04552766   -0.18129794
     The ionic contribution  to forces
     atom    1 type  1   force =    -9.26401904   -4.74922061   -1.20868758
     atom    2 type  1   force =    -5.03853027   -5.16545857   -1.49857883
     atom    3 type  1   force =    -9.24957959   -1.35733541    1.63477195
     atom    4 type  1   force =    -9.49338279    4.05099530    5.89114469
     atom    5 type  2   force =    -5.92387808   -3.01928925   -0.77856749
     atom    6 type  1   force =    -4.68267745    7.63512288    6.85604370
     atom    7 type  1   force =     0.43145699    4.34179142    1.45424154
     atom    8 type  1   force =     4.82994183   -3.13063863   -3.56680303
     atom    9 type  1   force =     4.80902071    9.94664939   -1.29218311
     atom   10 type  1   force =    -2.96031864    7.54691780    5.23419248
     atom   11 type  2   force =     9.53220391    1.90592644   -4.51215028
     atom   12 type  1   force =     7.54454481    3.14860171   -0.04819485
     atom   13 type  2   force =     0.37534402   15.00753630   14.80120115
     atom   14 type  1   force =     6.89488375    0.53156881   -2.41495531
     atom   15 type  1   force =     7.84946494    4.64994717    2.80447143
     atom   16 type  2   force =    -2.69541962    1.69507736   -1.05977269
     atom   17 type  1   force =     7.04261997    7.30522306   -5.01516590
     atom   18 type  1   force =    -0.43596437    2.81736241   -3.66477392
     atom   19 type  1   force =    -6.53631451   -4.70753107   -2.28903967
     atom   20 type  1   force =    -6.96386508    5.82156171   -7.67461661
     atom   21 type  2   force =   -17.07983221    2.26418354   -0.54452005
     atom   22 type  1   force =     5.93531886    6.17693443   -2.03611826
     atom   23 type  2   force =    -8.38092342   -2.93485250   -2.89569783
     atom   24 type  1   force =    -2.99885627   -1.43240813   -2.84677437
     atom   25 type  2   force =    14.98183962    9.34592765   -4.72286614
     atom   26 type  1   force =    -6.82782832   -3.16171554    0.92896258
     atom   27 type  1   force =    -4.61151541   -0.54634121   -0.72683626
     atom   28 type  2   force =    10.56963980   -2.24300094   -4.43788379
     atom   29 type  1   force =     5.90176508   -6.14344206   -1.51911728
     atom   30 type  2   force =   -11.26273230  -18.84826811    0.98947817
     atom   31 type  1   force =     8.08328924   -2.84606635   -1.83400039
     atom   32 type  1   force =     5.62842155   -8.67889115    0.16882645
     atom   33 type  2   force =    -0.86374379   -0.19577485    8.56884268
     atom   34 type  1   force =     1.48367547   -5.48001770    5.12755826
     atom   35 type  2   force =    10.98613779  -17.55420703   -6.80454518
     atom   36 type  1   force =     0.74507913   -4.57134165    4.40840768
     atom   37 type  1   force =     2.75386255   -9.96567457    4.32574934
     atom   38 type  3   force =    -1.89096181   -2.57051169   -1.77331716
     atom   39 type  3   force =    -3.16522774    0.12758281    1.07688187
     atom   40 type  3   force =    -0.07607832   -2.65811251   -1.52589780
     atom   41 type  3   force =    -3.61386104    0.18050352    1.03980929
     atom   42 type  3   force =    -1.15166435    2.60337713    2.54987409
     atom   43 type  3   force =    -1.72274475    0.43127163    3.75232838
     atom   44 type  3   force =    -2.14545032    4.36602248    0.70222972
     atom   45 type  3   force =     4.17308712   -0.80786320   -1.03826892
     atom   46 type  3   force =    -0.45809363   -2.86692972   -1.70750251
     atom   47 type  3   force =     3.90005006    1.58515507   -1.28253769
     atom   48 type  3   force =    -0.57687224    4.83168335   -0.64943821
     atom   49 type  3   force =    -0.60784920    0.72643290    3.71335450
     atom   50 type  3   force =    -1.43853221    4.44434397    0.58489442
     atom   51 type  3   force =     2.19012929   -1.12491557   -2.25319438
     atom   52 type  3   force =     0.92693224    2.32651034    2.41202962
     atom   53 type  3   force =     3.04620668    0.55709929   -0.32533011
     atom   54 type  3   force =     4.33603949    0.30355034   -0.73324236
     atom   55 type  3   force =     1.12748239    4.51513620   -1.43330693
     atom   56 type  3   force =    -2.81731284   -2.70214452   -2.36617279
     atom   57 type  3   force =    -2.32005772   -1.85303625    1.68414060
     atom   58 type  3   force =    -3.44538585   -0.41283611   -2.81357421
     atom   59 type  3   force =    -1.26170032    4.21159271   -1.80904330
     atom   60 type  3   force =    -1.99565880    4.79278092    1.24029044
     atom   61 type  3   force =     4.11459095   -0.15061802   -0.61786688
     atom   62 type  3   force =     1.01108793    4.22226251   -1.21259795
     atom   63 type  3   force =    -3.50231451   -1.92093879    0.63674903
     atom   64 type  3   force =     1.53075687    1.57635267   -0.04879772
     atom   65 type  3   force =    -3.07914025   -1.76127840   -0.79846519
     atom   66 type  3   force =     3.62460579    0.81252400   -0.84743150
     atom   67 type  3   force =    -0.75399548   -3.21620770    0.41107566
     atom   68 type  3   force =     3.20559576   -1.75652663   -0.03898797
     atom   69 type  3   force =     0.10244407   -0.66417982    1.53937821
     atom   70 type  3   force =     1.61463619   -3.34229725   -0.51920147
     atom   71 type  3   force =     0.01012764   -2.26563770    2.64909595
     The local contribution  to forces
     atom    1 type  1   force =     9.28307369    4.75113404    1.20467835
     atom    2 type  1   force =     4.99979865    5.09029084    1.42300587
     atom    3 type  1   force =     8.76806980    1.33343461   -1.54764289
     atom    4 type  1   force =     9.48080602   -4.04993902   -5.88323201
     atom    5 type  2   force =     6.93013826    2.03104100   -0.60227933
     atom    6 type  1   force =     4.84464341   -7.36901955   -6.56945918
     atom    7 type  1   force =    -0.43426978   -4.36639175   -1.48225682
     atom    8 type  1   force =    -4.74929193    3.22732486    3.06321983
     atom    9 type  1   force =    -4.63256757   -9.74502603    1.47302601
     atom   10 type  1   force =     2.49633654   -7.51707657   -5.07259807
     atom   11 type  2   force =    -8.84903173   -2.91360985    3.13243807
     atom   12 type  1   force =    -7.24430364   -3.00759359    0.16456384
     atom   13 type  2   force =    -0.99927106  -13.72947100  -13.08013372
     atom   14 type  1   force =    -6.76995819   -0.53371659    2.38886282
     atom   15 type  1   force =    -7.86626867   -4.62727088   -2.77217654
     atom   16 type  2   force =     1.08821823   -2.99769758    1.49661790
     atom   17 type  1   force =    -6.87167357   -7.26257581    4.72640587
     atom   18 type  1   force =     0.37813820   -2.81237577    3.68131021
     atom   19 type  1   force =     6.04329769    4.84541961    2.29399896
     atom   20 type  1   force =     7.09102428   -5.80768346    7.37080420
     atom   21 type  2   force =    16.07002581   -3.97135268    1.28591669
     atom   22 type  1   force =    -5.63840106   -5.94529858    2.34904319
     atom   23 type  2   force =     6.83104862    2.02182874    3.32324396
     atom   24 type  1   force =     2.99704647    1.35579363    2.50626549
     atom   25 type  2   force =   -13.13828917   -8.30808352    4.03159456
     atom   26 type  1   force =     6.71333461    3.16739723   -0.95740169
     atom   27 type  1   force =     4.48327613    0.73556821    0.74456740
     atom   28 type  2   force =    -9.10403349    3.28311884    4.12015323
     atom   29 type  1   force =    -5.74317930    5.85346133    1.58897334
     atom   30 type  2   force =     9.59484711   17.43892288   -0.57202976
     atom   31 type  1   force =    -7.97109650    2.79957934    1.84448327
     atom   32 type  1   force =    -5.66440876    8.66136425   -0.16036494
     atom   33 type  2   force =     0.06361899    1.23637212   -7.32961163
     atom   34 type  1   force =    -1.42280869    5.19967102   -4.95174325
     atom   35 type  2   force =    -9.99606179   16.13949460    5.39997140
     atom   36 type  1   force =    -0.78155919    4.57407049   -4.22520459
     atom   37 type  1   force =    -2.73210104    9.94348880   -4.36681246
     atom   38 type  3   force =     1.84369543    2.43013516    1.64175293
     atom   39 type  3   force =     3.01111348   -0.04945827   -0.96645252
     atom   40 type  3   force =     0.21792842    2.57266262    1.40696283
     atom   41 type  3   force =     3.41867775   -0.21629813   -1.03179639
     atom   42 type  3   force =     1.22013531   -2.46668473   -2.42507902
     atom   43 type  3   force =     1.70256866   -0.47340098   -3.58163632
     atom   44 type  3   force =     2.08321071   -4.20148386   -0.71475188
     atom   45 type  3   force =    -4.00700908    0.80621258    0.99412592
     atom   46 type  3   force =     0.38107011    2.76837751    1.59016862
     atom   47 type  3   force =    -3.73378494   -1.57871496    1.25319766
     atom   48 type  3   force =     0.52164723   -4.66569026    0.64107963
     atom   49 type  3   force =     0.57629236   -0.77602027   -3.55136958
     atom   50 type  3   force =     1.37335505   -4.28413232   -0.58940666
     atom   51 type  3   force =    -2.13842150    1.00598693    2.09559104
     atom   52 type  3   force =    -0.97624511   -2.20751454   -2.25405651
     atom   53 type  3   force =    -2.85377040   -0.57136193    0.26888227
     atom   54 type  3   force =    -4.17315176   -0.36148887    0.72799975
     atom   55 type  3   force =    -1.11889667   -4.34920001    1.39317353
     atom   56 type  3   force =     2.72071531    2.62082657    2.24941683
     atom   57 type  3   force =     2.23227554    1.83754516   -1.53586584
     atom   58 type  3   force =     3.35724647    0.33126408    2.68765283
     atom   59 type  3   force =     1.27696110   -4.05502615    1.75734950
     atom   60 type  3   force =     2.00113488   -4.62299830   -1.12819614
     atom   61 type  3   force =    -3.95243980    0.09263034    0.62685950
     atom   62 type  3   force =    -0.99110136   -4.05509743    1.17334496
     atom   63 type  3   force =     3.33780009    1.82713080   -0.56642442
     atom   64 type  3   force =    -1.39819414   -1.40369091   -0.01291752
     atom   65 type  3   force =     2.93918157    1.68163519    0.67140869
     atom   66 type  3   force =    -3.47571274   -0.67848625    0.80883478
     atom   67 type  3   force =     0.60697776    3.08157661   -0.37145828
     atom   68 type  3   force =    -3.01349060    1.69857630    0.04761484
     atom   69 type  3   force =    -0.06792001    0.66186014   -1.45905114
     atom   70 type  3   force =    -1.52271789    3.20526886    0.39806886
     atom   71 type  3   force =    -0.04739917    2.21619273   -2.45482636
     The core correction contribution to forces
     atom    1 type  1   force =     0.00214706    0.00063251    0.00017142
     atom    2 type  1   force =    -0.00238196   -0.00154721   -0.00110377
     atom    3 type  1   force =    -0.00474042    0.00081277    0.00193911
     atom    4 type  1   force =     0.00113341   -0.00101621   -0.00125793
     atom    5 type  2   force =     0.00571347   -0.00578552   -0.00811291
     atom    6 type  1   force =     0.00078262    0.00206630    0.00235365
     atom    7 type  1   force =     0.00000842   -0.00008417   -0.00016781
     atom    8 type  1   force =     0.00077904    0.00023165   -0.00358431
     atom    9 type  1   force =     0.00170085    0.00214710    0.00108611
     atom   10 type  1   force =    -0.00314199    0.00049835    0.00150633
     atom   11 type  2   force =     0.00423835   -0.00508551   -0.00710968
     atom   12 type  1   force =     0.00122624    0.00317289    0.00368220
     atom   13 type  2   force =    -0.00197444    0.00462115    0.00619029
     atom   14 type  1   force =     0.00256413    0.00120728    0.00099081
     atom   15 type  1   force =    -0.00168103   -0.00097833   -0.00087312
     atom   16 type  2   force =    -0.00992098   -0.00790989    0.00268419
     atom   17 type  1   force =     0.00189135    0.00071817   -0.00214371
     atom   18 type  1   force =    -0.00049382    0.00013545    0.00012508
     atom   19 type  1   force =    -0.00358953    0.00050579    0.00016635
     atom   20 type  1   force =     0.00053527    0.00041648   -0.00271863
     atom   21 type  2   force =    -0.00560276   -0.00984198    0.00442882
     atom   22 type  1   force =     0.00237742    0.00173366    0.00186304
     atom   23 type  2   force =    -0.00822931   -0.00502873    0.00163194
     atom   24 type  1   force =     0.00314117    0.00119104   -0.00367425
     atom   25 type  2   force =     0.00646404    0.00361146   -0.00262856
     atom   26 type  1   force =    -0.00028301   -0.00003475   -0.00275722
     atom   27 type  1   force =    -0.00008632    0.00030926    0.00151701
     atom   28 type  2   force =     0.00802907    0.00499226   -0.00154489
     atom   29 type  1   force =    -0.00155481   -0.00453684    0.00121130
     atom   30 type  2   force =    -0.00575642   -0.00517246    0.00153750
     atom   31 type  1   force =     0.00132011   -0.00257987    0.00062440
     atom   32 type  1   force =    -0.00075053    0.00198663   -0.00045952
     atom   33 type  2   force =    -0.00414427    0.00498088    0.00691997
     atom   34 type  1   force =     0.00209758   -0.00444206   -0.00098994
     atom   35 type  2   force =     0.00353026   -0.00519544   -0.00485014
     atom   36 type  1   force =    -0.00033666   -0.00108254    0.00274578
     atom   37 type  1   force =    -0.00043491    0.00180049   -0.00105073
     atom   38 type  3   force =     0.00000000    0.00000000    0.00000000
     atom   39 type  3   force =     0.00000000    0.00000000    0.00000000
     atom   40 type  3   force =     0.00000000    0.00000000    0.00000000
     atom   41 type  3   force =     0.00000000    0.00000000    0.00000000
     atom   42 type  3   force =     0.00000000    0.00000000    0.00000000
     atom   43 type  3   force =     0.00000000    0.00000000    0.00000000
     atom   44 type  3   force =     0.00000000    0.00000000    0.00000000
     atom   45 type  3   force =     0.00000000    0.00000000    0.00000000
     atom   46 type  3   force =     0.00000000    0.00000000    0.00000000
     atom   47 type  3   force =     0.00000000    0.00000000    0.00000000
     atom   48 type  3   force =     0.00000000    0.00000000    0.00000000
     atom   49 type  3   force =     0.00000000    0.00000000    0.00000000
     atom   50 type  3   force =     0.00000000    0.00000000    0.00000000
     atom   51 type  3   force =     0.00000000    0.00000000    0.00000000
     atom   52 type  3   force =     0.00000000    0.00000000    0.00000000
     atom   53 type  3   force =     0.00000000    0.00000000    0.00000000
     atom   54 type  3   force =     0.00000000    0.00000000    0.00000000
     atom   55 type  3   force =     0.00000000    0.00000000    0.00000000
     atom   56 type  3   force =     0.00000000    0.00000000    0.00000000
     atom   57 type  3   force =     0.00000000    0.00000000    0.00000000
     atom   58 type  3   force =     0.00000000    0.00000000    0.00000000
     atom   59 type  3   force =     0.00000000    0.00000000    0.00000000
     atom   60 type  3   force =     0.00000000    0.00000000    0.00000000
     atom   61 type  3   force =     0.00000000    0.00000000    0.00000000
     atom   62 type  3   force =     0.00000000    0.00000000    0.00000000
     atom   63 type  3   force =     0.00000000    0.00000000    0.00000000
     atom   64 type  3   force =     0.00000000    0.00000000    0.00000000
     atom   65 type  3   force =     0.00000000    0.00000000    0.00000000
     atom   66 type  3   force =     0.00000000    0.00000000    0.00000000
     atom   67 type  3   force =     0.00000000    0.00000000    0.00000000
     atom   68 type  3   force =     0.00000000    0.00000000    0.00000000
     atom   69 type  3   force =     0.00000000    0.00000000    0.00000000
     atom   70 type  3   force =     0.00000000    0.00000000    0.00000000
     atom   71 type  3   force =     0.00000000    0.00000000    0.00000000
     The Hubbard contrib.    to forces
     atom    1 type  1   force =     0.00000000    0.00000000    0.00000000
     atom    2 type  1   force =     0.00000000    0.00000000    0.00000000
     atom    3 type  1   force =     0.00000000    0.00000000    0.00000000
     atom    4 type  1   force =     0.00000000    0.00000000    0.00000000
     atom    5 type  2   force =     0.00000000    0.00000000    0.00000000
     atom    6 type  1   force =     0.00000000    0.00000000    0.00000000
     atom    7 type  1   force =     0.00000000    0.00000000    0.00000000
     atom    8 type  1   force =     0.00000000    0.00000000    0.00000000
     atom    9 type  1   force =     0.00000000    0.00000000    0.00000000
     atom   10 type  1   force =     0.00000000    0.00000000    0.00000000
     atom   11 type  2   force =     0.00000000    0.00000000    0.00000000
     atom   12 type  1   force =     0.00000000    0.00000000    0.00000000
     atom   13 type  2   force =     0.00000000    0.00000000    0.00000000
     atom   14 type  1   force =     0.00000000    0.00000000    0.00000000
     atom   15 type  1   force =     0.00000000    0.00000000    0.00000000
     atom   16 type  2   force =     0.00000000    0.00000000    0.00000000
     atom   17 type  1   force =     0.00000000    0.00000000    0.00000000
     atom   18 type  1   force =     0.00000000    0.00000000    0.00000000
     atom   19 type  1   force =     0.00000000    0.00000000    0.00000000
     atom   20 type  1   force =     0.00000000    0.00000000    0.00000000
     atom   21 type  2   force =     0.00000000    0.00000000    0.00000000
     atom   22 type  1   force =     0.00000000    0.00000000    0.00000000
     atom   23 type  2   force =     0.00000000    0.00000000    0.00000000
     atom   24 type  1   force =     0.00000000    0.00000000    0.00000000
     atom   25 type  2   force =     0.00000000    0.00000000    0.00000000
     atom   26 type  1   force =     0.00000000    0.00000000    0.00000000
     atom   27 type  1   force =     0.00000000    0.00000000    0.00000000
     atom   28 type  2   force =     0.00000000    0.00000000    0.00000000
     atom   29 type  1   force =     0.00000000    0.00000000    0.00000000
     atom   30 type  2   force =     0.00000000    0.00000000    0.00000000
     atom   31 type  1   force =     0.00000000    0.00000000    0.00000000
     atom   32 type  1   force =     0.00000000    0.00000000    0.00000000
     atom   33 type  2   force =     0.00000000    0.00000000    0.00000000
     atom   34 type  1   force =     0.00000000    0.00000000    0.00000000
     atom   35 type  2   force =     0.00000000    0.00000000    0.00000000
     atom   36 type  1   force =     0.00000000    0.00000000    0.00000000
     atom   37 type  1   force =     0.00000000    0.00000000    0.00000000
     atom   38 type  3   force =     0.00000000    0.00000000    0.00000000
     atom   39 type  3   force =     0.00000000    0.00000000    0.00000000
     atom   40 type  3   force =     0.00000000    0.00000000    0.00000000
     atom   41 type  3   force =     0.00000000    0.00000000    0.00000000
     atom   42 type  3   force =     0.00000000    0.00000000    0.00000000
     atom   43 type  3   force =     0.00000000    0.00000000    0.00000000
     atom   44 type  3   force =     0.00000000    0.00000000    0.00000000
     atom   45 type  3   force =     0.00000000    0.00000000    0.00000000
     atom   46 type  3   force =     0.00000000    0.00000000    0.00000000
     atom   47 type  3   force =     0.00000000    0.00000000    0.00000000
     atom   48 type  3   force =     0.00000000    0.00000000    0.00000000
     atom   49 type  3   force =     0.00000000    0.00000000    0.00000000
     atom   50 type  3   force =     0.00000000    0.00000000    0.00000000
     atom   51 type  3   force =     0.00000000    0.00000000    0.00000000
     atom   52 type  3   force =     0.00000000    0.00000000    0.00000000
     atom   53 type  3   force =     0.00000000    0.00000000    0.00000000
     atom   54 type  3   force =     0.00000000    0.00000000    0.00000000
     atom   55 type  3   force =     0.00000000    0.00000000    0.00000000
     atom   56 type  3   force =     0.00000000    0.00000000    0.00000000
     atom   57 type  3   force =     0.00000000    0.00000000    0.00000000
     atom   58 type  3   force =     0.00000000    0.00000000    0.00000000
     atom   59 type  3   force =     0.00000000    0.00000000    0.00000000
     atom   60 type  3   force =     0.00000000    0.00000000    0.00000000
     atom   61 type  3   force =     0.00000000    0.00000000    0.00000000
     atom   62 type  3   force =     0.00000000    0.00000000    0.00000000
     atom   63 type  3   force =     0.00000000    0.00000000    0.00000000
     atom   64 type  3   force =     0.00000000    0.00000000    0.00000000
     atom   65 type  3   force =     0.00000000    0.00000000    0.00000000
     atom   66 type  3   force =     0.00000000    0.00000000    0.00000000
     atom   67 type  3   force =     0.00000000    0.00000000    0.00000000
     atom   68 type  3   force =     0.00000000    0.00000000    0.00000000
     atom   69 type  3   force =     0.00000000    0.00000000    0.00000000
     atom   70 type  3   force =     0.00000000    0.00000000    0.00000000
     atom   71 type  3   force =     0.00000000    0.00000000    0.00000000
     The SCF correction term to forces
     atom    1 type  1   force =     0.00001101   -0.00000310   -0.00000663
     atom    2 type  1   force =     0.00000520   -0.00000009   -0.00000413
     atom    3 type  1   force =     0.00001061   -0.00000211   -0.00000749
     atom    4 type  1   force =     0.00000457    0.00000119   -0.00000127
     atom    5 type  2   force =    -0.00001226   -0.00000626   -0.00000805
     atom    6 type  1   force =     0.00001547    0.00000136   -0.00000512
     atom    7 type  1   force =    -0.00000139    0.00000339   -0.00000026
     atom    8 type  1   force =    -0.00000464    0.00001079   -0.00000097
     atom    9 type  1   force =    -0.00000193   -0.00001255    0.00001103
     atom   10 type  1   force =    -0.00001124   -0.00000730   -0.00001357
     atom   11 type  2   force =     0.00000343    0.00000142   -0.00000286
     atom   12 type  1   force =     0.00000069   -0.00000562   -0.00000682
     atom   13 type  2   force =    -0.00000838    0.00000330    0.00000888
     atom   14 type  1   force =     0.00000597   -0.00000256   -0.00000333
     atom   15 type  1   force =    -0.00000024   -0.00000806   -0.00000928
     atom   16 type  2   force =     0.00000649   -0.00000683    0.00000250
     atom   17 type  1   force =    -0.00000674   -0.00000919   -0.00001183
     atom   18 type  1   force =     0.00000250    0.00000188   -0.00000122
     atom   19 type  1   force =     0.00000387    0.00001309   -0.00000039
     atom   20 type  1   force =     0.00001143   -0.00001086    0.00000542
     atom   21 type  2   force =    -0.00000207   -0.00001725   -0.00000793
     atom   22 type  1   force =    -0.00000732    0.00000119    0.00001778
     atom   23 type  2   force =    -0.00000151   -0.00000181   -0.00000423
     atom   24 type  1   force =    -0.00000520   -0.00000197    0.00000669
     atom   25 type  2   force =     0.00001154    0.00000576    0.00000657
     atom   26 type  1   force =    -0.00000419   -0.00000362   -0.00000207
     atom   27 type  1   force =    -0.00000436   -0.00000488    0.00000236
     atom   28 type  2   force =    -0.00000537    0.00000051    0.00000742
     atom   29 type  1   force =     0.00000285    0.00000848    0.00000089
     atom   30 type  2   force =    -0.00001018    0.00000296    0.00000397
     atom   31 type  1   force =     0.00000398    0.00000292    0.00000168
     atom   32 type  1   force =     0.00000452    0.00000877   -0.00000099
     atom   33 type  2   force =    -0.00000053   -0.00000418   -0.00000524
     atom   34 type  1   force =    -0.00000318    0.00000264    0.00000357
     atom   35 type  2   force =     0.00000420   -0.00000544   -0.00000870
     atom   36 type  1   force =    -0.00000327    0.00000292    0.00000239
     atom   37 type  1   force =    -0.00000243    0.00000539   -0.00000202
     atom   38 type  3   force =     0.00000139    0.00000040    0.00000001
     atom   39 type  3   force =     0.00000060   -0.00000073   -0.00000110
     atom   40 type  3   force =    -0.00000030    0.00000111    0.00000068
     atom   41 type  3   force =     0.00000136    0.00000071    0.00000034
     atom   42 type  3   force =    -0.00000017   -0.00000031   -0.00000043
     atom   43 type  3   force =     0.00000183    0.00000044   -0.00000053
     atom   44 type  3   force =     0.00000239   -0.00000021   -0.00000010
     atom   45 type  3   force =    -0.00000128    0.00000103   -0.00000034
     atom   46 type  3   force =    -0.00000009    0.00000161    0.00000038
     atom   47 type  3   force =    -0.00000025   -0.00000134    0.00000100
     atom   48 type  3   force =     0.00000001   -0.00000084    0.00000158
     atom   49 type  3   force =    -0.00000166   -0.00000081   -0.00000043
     atom   50 type  3   force =    -0.00000170   -0.00000095   -0.00000148
     atom   51 type  3   force =    -0.00000076    0.00000071    0.00000102
     atom   52 type  3   force =     0.00000084   -0.00000069   -0.00000078
     atom   53 type  3   force =    -0.00000130   -0.00000064   -0.00000041
     atom   54 type  3   force =    -0.00000064   -0.00000087   -0.00000159
     atom   55 type  3   force =    -0.00000010   -0.00000132   -0.00000207
     atom   56 type  3   force =     0.00000054    0.00000194    0.00000061
     atom   57 type  3   force =     0.00000085    0.00000125   -0.00000115
     atom   58 type  3   force =     0.00000102   -0.00000119    0.00000094
     atom   59 type  3   force =     0.00000152   -0.00000087   -0.00000002
     atom   60 type  3   force =    -0.00000044   -0.00000239   -0.00000069
     atom   61 type  3   force =     0.00000014    0.00000007    0.00000211
     atom   62 type  3   force =    -0.00000059    0.00000030    0.00000228
     atom   63 type  3   force =     0.00000054    0.00000032    0.00000036
     atom   64 type  3   force =    -0.00000103   -0.00000099   -0.00000055
     atom   65 type  3   force =     0.00000088   -0.00000003    0.00000071
     atom   66 type  3   force =    -0.00000141    0.00000001    0.00000050
     atom   67 type  3   force =     0.00000092    0.00000051    0.00000011
     atom   68 type  3   force =    -0.00000048    0.00000089   -0.00000003
     atom   69 type  3   force =    -0.00000032   -0.00000152   -0.00000096
     atom   70 type  3   force =    -0.00000035    0.00000037    0.00000028
     atom   71 type  3   force =    -0.00000021    0.00000048   -0.00000047

     Total force =     0.449887     Total SCF correction =     0.000070


     Computing stress (Cartesian axis) and pressure


     negative rho (up, down):  5.207E-03 0.000E+00
          total   stress  (Ry/bohr**3)                   (kbar)     P=       -1.87
  -0.00000403  -0.00000966  -0.00003129           -0.59       -1.42       -4.60
  -0.00000966  -0.00002090   0.00002031           -1.42       -3.07        2.99
  -0.00003129   0.00002031  -0.00001323           -4.60        2.99       -1.95

     kinetic stress (kbar)   1570.36    -15.92     10.71
                              -15.92   1585.98    -24.47
                               10.71    -24.47   1576.73

     local   stress (kbar)  -4522.84   -202.43    -98.43
                             -202.43  -2977.14   -850.73
                              -98.43   -850.73 -14442.84

     nonloc. stress (kbar)    222.49     -1.83      2.93
                               -1.83    222.29     -2.81
                                2.93     -2.81    223.19

     hartree stress (kbar)   2153.37     67.51     83.54
                               67.51   1480.66    341.75
                               83.54    341.75   7054.84

     exc-cor stress (kbar)   -357.40      0.45     -0.74
                                0.45   -358.40      1.17
                               -0.74      1.17   -358.21

     corecor stress (kbar)    -42.35      0.02      0.06
                                0.02    -42.30     -0.05
                                0.06     -0.05    -42.21

     ewald   stress (kbar)    975.76    150.79     -2.67
                              150.79     85.83    538.12
                               -2.67    538.12   5986.55

     hubbard stress (kbar)      0.00      0.00      0.00
                                0.00      0.00      0.00
                                0.00      0.00      0.00

     DFT-D   stress (kbar)      0.00      0.00      0.00
                                0.00      0.00      0.00
                                0.00      0.00      0.00

     XDM     stress (kbar)      0.00      0.00      0.00
                                0.00      0.00      0.00
                                0.00      0.00      0.00

     dft-nl  stress (kbar)      0.00      0.00      0.00
                                0.00      0.00      0.00
                                0.00      0.00      0.00

     TS-vdW  stress (kbar)      0.00      0.00      0.00
                                0.00      0.00      0.00
                                0.00      0.00      0.00



     BFGS Geometry Optimization
     Energy error            =      0.0E+00
     Gradient error          =      1.3E-01

     number of scf cycles    =   1
     number of bfgs steps    =   0

     energy   new            =    -693.1371925358 Ry

     new trust radius        =       0.1466540479 bohr
     new conv_thr            =       0.0000000100 Ry


ATOMIC_POSITIONS (angstrom)
C             1.3317227545       -0.9517938716        0.1125044512
C             2.6045423805       -0.5565726226        0.2457842735
C             3.0885991040        0.4834655784        1.1942819020
C             2.2989921943        1.1377845413        2.0374360274
O             4.4485173172        0.6842901672        1.0947004537
C             5.1547085723        1.6058928013        1.9597011971
C             6.6703067956        1.5722428798        1.5835128458
C             7.2442069272        0.1340792835        1.6490889042
C             6.9023245515        2.1140752167        0.1584639547
C             7.3684552407        2.5178543521        2.6078826362
O             8.8152537602        2.5113390875        2.3046206883
C             9.6404653908        3.2784059518        3.0917801935
O             9.2829288837        3.9512042501        3.9970323501
C            11.0833680157        3.1795112140        2.6774377519
C            12.0259193380        3.8678662857        3.3419923973
O             6.2343188520        1.3098770498       -0.8029146371
C             6.7813929958        1.5035256576       -2.1052736506
C             5.9456676081        0.7592913298       -3.1685073924
C             5.7943324214       -0.7412240051       -2.8028556400
C             4.5254878386        1.3813858329       -3.2771978579
O             3.7881611205        1.2707704543       -2.0510546808
C             6.6849663281        0.9534247083       -4.5159461799
O             5.9083859650        0.2434123018       -5.5538716316
C             6.3711467945        0.2660375864       -6.8463240183
O             7.3701384168        0.8309652142       -7.1964153112
C             5.4986195068       -0.4861277257       -7.7734050610
C             5.7667456886       -0.5081638199       -9.0808966276
O             7.1612407927       -1.3134915779       -2.7215096079
C             7.2806578676       -2.6343229559       -2.3945966616
O             6.3744635311       -3.3727821336       -2.1788125486
C             8.7150096500       -3.0858769472       -2.3312211495
C             9.0145277549       -4.3567802285       -2.0208776119
O             7.0414651986       -0.3606396435        3.0345925126
C             7.4708505572       -1.6255629312        3.3251875878
O             7.9986163687       -2.3624528380        2.5647578557
C             7.2415691848       -2.0635749535        4.7297202955
C             7.5618135618       -3.2149850578        5.2129707438
H             1.0671719301       -1.7252380756       -0.6131972148
H             0.5076858247       -0.5338466912        0.7048837591
H             3.3380235594       -1.0463318042       -0.4039167485
H             1.2234222453        0.9503053139        2.0895872187
H             2.6789428522        1.8910268115        2.7204841109
H             5.0244166473        1.2848794741        2.9990009873
H             4.7592997308        2.6241123082        1.8245929594
H             8.3136482179        0.1327747789        1.4388726711
H             6.7196680551       -0.5258802258        0.9685111105
H             7.9939025195        2.1365396415       -0.0417965654
H             6.5118560706        3.1605314277        0.0763288023
H             7.2289456938        2.1568221471        3.6267191636
H             6.9976735658        3.5392530788        2.5111109276
H            11.3749020929        2.5564531847        1.8458063593
H            11.7900369549        4.5135968802        4.1911129647
H            13.0747529051        3.7877200744        3.0314073450
H             7.8185373043        1.1095939891       -2.1059858081
H             6.8089171685        2.5920472280       -2.3470665395
H             5.2419043954       -1.2746993196       -3.5768526744
H             5.3149047588       -0.8633856393       -1.8380667583
H             3.9383546899        0.8733762702       -4.0595433892
H             4.5898515790        2.4483570080       -3.5718843942
H             3.8505077018        2.1116692549       -1.6004955426
H             7.6847814442        0.5226208656       -4.4777903292
H             6.7353306453        2.0111118991       -4.7842733845
H             4.6102935156       -0.9871159303       -7.4428786647
H             6.6845808605       -0.0384352718       -9.5067938870
H             5.1568997898       -1.1065629514       -9.7844476602
H             9.5159688751       -2.3902206133       -2.5328424897
H             8.2460241497       -5.1034010683       -1.8061828000
H            10.0641993345       -4.6709523457       -1.9766459417
H             6.7667907222       -1.3656019871        5.4199093178
H             8.0536001227       -3.9623973224        4.5838007385
H             7.3604148473       -3.4832728222        6.2625636025



     Writing output data file /expanse/lustre/scratch/lphillips1/temp_project/DPPA.save/
     NEW-OLD atomic charge density approx. for the potential

     negative rho (up, down):  5.502E-03 0.000E+00

     total cpu time spent up to now is      104.7 secs

     Self-consistent Calculation

     iteration #  1     ecut=    30.00 Ry     beta= 0.30
     Davidson diagonalization with overlap
     c_bands:  1 eigenvalues not converged
     ethr =  1.00E-06,  avg # of iterations = 20.0

     negative rho (up, down):  5.125E-03 0.000E+00

     total cpu time spent up to now is      114.3 secs

     total energy              =    -693.22149524 Ry
     estimated scf accuracy    <       0.04388069 Ry

     iteration #  2     ecut=    30.00 Ry     beta= 0.30
     Davidson diagonalization with overlap
     ethr =  2.15E-05,  avg # of iterations =  2.0

     negative rho (up, down):  5.246E-03 0.000E+00

     total cpu time spent up to now is      119.0 secs

     total energy              =    -693.22273354 Ry
     estimated scf accuracy    <       0.00964071 Ry

     iteration #  3     ecut=    30.00 Ry     beta= 0.30
     Davidson diagonalization with overlap
     ethr =  4.73E-06,  avg # of iterations =  2.0

     negative rho (up, down):  6.274E-03 0.000E+00

     total cpu time spent up to now is      123.7 secs

     total energy              =    -693.22297368 Ry
     estimated scf accuracy    <       0.00230493 Ry

     iteration #  4     ecut=    30.00 Ry     beta= 0.30
     Davidson diagonalization with overlap
     ethr =  1.13E-06,  avg # of iterations =  5.0

     negative rho (up, down):  6.244E-03 0.000E+00

     total cpu time spent up to now is      128.8 secs

     total energy              =    -693.22320520 Ry
     estimated scf accuracy    <       0.00025301 Ry

     iteration #  5     ecut=    30.00 Ry     beta= 0.30
     Davidson diagonalization with overlap
     ethr =  1.24E-07,  avg # of iterations =  2.0

     negative rho (up, down):  5.927E-03 0.000E+00

     total cpu time spent up to now is      133.5 secs

     total energy              =    -693.22323411 Ry
     estimated scf accuracy    <       0.00004540 Ry

     iteration #  6     ecut=    30.00 Ry     beta= 0.30
     Davidson diagonalization with overlap
     ethr =  2.23E-08,  avg # of iterations =  2.0

     negative rho (up, down):  5.588E-03 0.000E+00

     total cpu time spent up to now is      138.4 secs

     total energy              =    -693.22324655 Ry
     estimated scf accuracy    <       0.00000495 Ry

     iteration #  7     ecut=    30.00 Ry     beta= 0.30
     Davidson diagonalization with overlap
     ethr =  2.43E-09,  avg # of iterations =  2.0

     negative rho (up, down):  5.385E-03 0.000E+00

     total cpu time spent up to now is      143.2 secs

     total energy              =    -693.22325145 Ry
     estimated scf accuracy    <       0.00000097 Ry

     iteration #  8     ecut=    30.00 Ry     beta= 0.30
     Davidson diagonalization with overlap
     ethr =  4.74E-10,  avg # of iterations =  2.0

     negative rho (up, down):  5.273E-03 0.000E+00

     total cpu time spent up to now is      148.2 secs

     total energy              =    -693.22325415 Ry
     estimated scf accuracy    <       0.00000013 Ry

     iteration #  9     ecut=    30.00 Ry     beta= 0.30
     Davidson diagonalization with overlap
     ethr =  6.25E-11,  avg # of iterations =  2.0

     negative rho (up, down):  5.222E-03 0.000E+00

     total cpu time spent up to now is      153.1 secs

     total energy              =    -693.22325548 Ry
     estimated scf accuracy    <       0.00000003 Ry

     iteration # 10     ecut=    30.00 Ry     beta= 0.30
     Davidson diagonalization with overlap
     ethr =  1.51E-11,  avg # of iterations =  2.0

     negative rho (up, down):  5.194E-03 0.000E+00

     total cpu time spent up to now is      157.9 secs

     End of self-consistent calculation

          k = 0.0000 0.0000 0.0000 ( 63077 PWs)   bands (ev):

   -26.6005 -26.5556 -26.3329 -26.2852 -25.4040 -25.1482 -24.6377 -24.5516
   -24.4074 -24.3168 -24.2608 -20.0706 -19.6071 -19.2330 -18.6621 -18.4912
   -18.4319 -18.3058 -16.9919 -16.9402 -16.8975 -16.7522 -16.4224 -16.1298
   -15.5401 -15.1467 -14.6161 -14.2911 -14.2137 -13.8014 -13.2259 -12.8567
   -12.7283 -12.6127 -12.4826 -12.3217 -12.2120 -11.9591 -11.8611 -11.7071
   -11.6347 -11.4137 -11.3429 -11.2628 -11.1096 -11.0274 -10.9262 -10.8213
   -10.5816 -10.5035 -10.3682 -10.3272 -10.2870 -10.1831 -10.1155  -9.9268
    -9.7934  -9.7280  -9.5619  -9.4966  -9.3918  -9.2381  -9.2094  -9.0709
    -9.0506  -8.9940  -8.9130  -8.6568  -8.5765  -8.4199  -8.2632  -8.2450
    -8.2122  -8.0391  -7.9716  -7.9071  -7.8583  -7.6506  -7.5127  -7.4272
    -7.3333  -7.2413  -7.1714  -7.0346  -6.6854  -6.5030  -6.3438  -6.3038
    -6.2624  -6.0636  -6.0510  -6.0218  -5.8414  -5.7946  -5.5641  -5.5134
    -5.4130  -5.3326  -5.2192  -5.0051  -4.8123  -4.1469  -1.3391  -1.2433
    -1.1077  -1.1006  -0.6056   0.0573   0.4543   0.6248   0.6453   0.7899
     0.8797   0.9523   1.0106   1.1701   1.2041   1.2887   1.3439   1.4168
     1.4808   1.4946

     occupation numbers 
     1.0000   1.0000   1.0000   1.0000   1.0000   1.0000   1.0000   1.0000
     1.0000   1.0000   1.0000   1.0000   1.0000   1.0000   1.0000   1.0000
     1.0000   1.0000   1.0000   1.0000   1.0000   1.0000   1.0000   1.0000
     1.0000   1.0000   1.0000   1.0000   1.0000   1.0000   1.0000   1.0000
     1.0000   1.0000   1.0000   1.0000   1.0000   1.0000   1.0000   1.0000
     1.0000   1.0000   1.0000   1.0000   1.0000   1.0000   1.0000   1.0000
     1.0000   1.0000   1.0000   1.0000   1.0000   1.0000   1.0000   1.0000
     1.0000   1.0000   1.0000   1.0000   1.0000   1.0000   1.0000   1.0000
     1.0000   1.0000   1.0000   1.0000   1.0000   1.0000   1.0000   1.0000
     1.0000   1.0000   1.0000   1.0000   1.0000   1.0000   1.0000   1.0000
     1.0000   1.0000   1.0000   1.0000   1.0000   1.0000   1.0000   1.0000
     1.0000   1.0000   1.0000   1.0000   1.0000   1.0000   1.0000   1.0000
     1.0000   1.0000   1.0000   1.0000   1.0000   1.0000   0.0000   0.0000
     0.0000   0.0000   0.0000   0.0000   0.0000   0.0000   0.0000   0.0000
     0.0000   0.0000   0.0000   0.0000   0.0000   0.0000   0.0000   0.0000
     0.0000   0.0000

     the Fermi energy is    -1.9560 ev

!    total energy              =    -693.22325691 Ry
     estimated scf accuracy    <          4.0E-09 Ry
     smearing contrib. (-TS)   =      -0.00000000 Ry
     internal energy E=F+TS    =    -693.22325691 Ry

     The total energy is F=E-TS. E is the sum of the following terms:
     one-electron contribution =   -3225.62905950 Ry
     hartree contribution      =    1647.49075730 Ry
     xc contribution           =    -198.08667807 Ry
     ewald contribution        =    1083.00172336 Ry

     convergence has been achieved in  10 iterations

     negative rho (up, down):  5.194E-03 0.000E+00

     Forces acting on atoms (cartesian axes, Ry/au):

     atom    1 type  1   force =    -0.00359379    0.00134441    0.00346967
     atom    2 type  1   force =     0.00312519    0.00265383    0.00485508
     atom    3 type  1   force =     0.02196764   -0.01928735   -0.02223377
     atom    4 type  1   force =    -0.02716790    0.02574701    0.03144392
     atom    5 type  2   force =     0.00918997   -0.00930147   -0.00322872
     atom    6 type  1   force =    -0.00269285   -0.02766817   -0.02790137
     atom    7 type  1   force =    -0.00843311   -0.00037041    0.01055151
     atom    8 type  1   force =    -0.01421879    0.01167234    0.04635087
[...]
     atom    4 type  1   force =     0.00000000    0.00000000    0.00000000
     atom    5 type  2   force =     0.00000000    0.00000000    0.00000000
     atom    6 type  1   force =     0.00000000    0.00000000    0.00000000
     atom    7 type  1   force =     0.00000000    0.00000000    0.00000000
     atom    8 type  1   force =     0.00000000    0.00000000    0.00000000
     atom    9 type  1   force =     0.00000000    0.00000000    0.00000000
     atom   10 type  1   force =     0.00000000    0.00000000    0.00000000
     atom   11 type  2   force =     0.00000000    0.00000000    0.00000000
     atom   12 type  1   force =     0.00000000    0.00000000    0.00000000
     atom   13 type  2   force =     0.00000000    0.00000000    0.00000000
     atom   14 type  1   force =     0.00000000    0.00000000    0.00000000
     atom   15 type  1   force =     0.00000000    0.00000000    0.00000000
     atom   16 type  2   force =     0.00000000    0.00000000    0.00000000
     atom   17 type  1   force =     0.00000000    0.00000000    0.00000000
     atom   18 type  1   force =     0.00000000    0.00000000    0.00000000
     atom   19 type  1   force =     0.00000000    0.00000000    0.00000000
     atom   20 type  1   force =     0.00000000    0.00000000    0.00000000
     atom   21 type  2   force =     0.00000000    0.00000000    0.00000000
     atom   22 type  1   force =     0.00000000    0.00000000    0.00000000
     atom   23 type  2   force =     0.00000000    0.00000000    0.00000000
     atom   24 type  1   force =     0.00000000    0.00000000    0.00000000
     atom   25 type  2   force =     0.00000000    0.00000000    0.00000000
     atom   26 type  1   force =     0.00000000    0.00000000    0.00000000
     atom   27 type  1   force =     0.00000000    0.00000000    0.00000000
     atom   28 type  2   force =     0.00000000    0.00000000    0.00000000
     atom   29 type  1   force =     0.00000000    0.00000000    0.00000000
     atom   30 type  2   force =     0.00000000    0.00000000    0.00000000
     atom   31 type  1   force =     0.00000000    0.00000000    0.00000000
     atom   32 type  1   force =     0.00000000    0.00000000    0.00000000
     atom   33 type  2   force =     0.00000000    0.00000000    0.00000000
     atom   34 type  1   force =     0.00000000    0.00000000    0.00000000
     atom   35 type  2   force =     0.00000000    0.00000000    0.00000000
     atom   36 type  1   force =     0.00000000    0.00000000    0.00000000
     atom   37 type  1   force =     0.00000000    0.00000000    0.00000000
     atom   38 type  3   force =     0.00000000    0.00000000    0.00000000
     atom   39 type  3   force =     0.00000000    0.00000000    0.00000000
     atom   40 type  3   force =     0.00000000    0.00000000    0.00000000
     atom   41 type  3   force =     0.00000000    0.00000000    0.00000000
     atom   42 type  3   force =     0.00000000    0.00000000    0.00000000
     atom   43 type  3   force =     0.00000000    0.00000000    0.00000000
     atom   44 type  3   force =     0.00000000    0.00000000    0.00000000
     atom   45 type  3   force =     0.00000000    0.00000000    0.00000000
     atom   46 type  3   force =     0.00000000    0.00000000    0.00000000
     atom   47 type  3   force =     0.00000000    0.00000000    0.00000000
     atom   48 type  3   force =     0.00000000    0.00000000    0.00000000
     atom   49 type  3   force =     0.00000000    0.00000000    0.00000000
     atom   50 type  3   force =     0.00000000    0.00000000    0.00000000
     atom   51 type  3   force =     0.00000000    0.00000000    0.00000000
     atom   52 type  3   force =     0.00000000    0.00000000    0.00000000
     atom   53 type  3   force =     0.00000000    0.00000000    0.00000000
     atom   54 type  3   force =     0.00000000    0.00000000    0.00000000
     atom   55 type  3   force =     0.00000000    0.00000000    0.00000000
     atom   56 type  3   force =     0.00000000    0.00000000    0.00000000
     atom   57 type  3   force =     0.00000000    0.00000000    0.00000000
     atom   58 type  3   force =     0.00000000    0.00000000    0.00000000
     atom   59 type  3   force =     0.00000000    0.00000000    0.00000000
     atom   60 type  3   force =     0.00000000    0.00000000    0.00000000
     atom   61 type  3   force =     0.00000000    0.00000000    0.00000000
     atom   62 type  3   force =     0.00000000    0.00000000    0.00000000
     atom   63 type  3   force =     0.00000000    0.00000000    0.00000000
     atom   64 type  3   force =     0.00000000    0.00000000    0.00000000
     atom   65 type  3   force =     0.00000000    0.00000000    0.00000000
     atom   66 type  3   force =     0.00000000    0.00000000    0.00000000
     atom   67 type  3   force =     0.00000000    0.00000000    0.00000000
     atom   68 type  3   force =     0.00000000    0.00000000    0.00000000
     atom   69 type  3   force =     0.00000000    0.00000000    0.00000000
     atom   70 type  3   force =     0.00000000    0.00000000    0.00000000
     atom   71 type  3   force =     0.00000000    0.00000000    0.00000000
     The SCF correction term to forces
     atom    1 type  1   force =    -0.00000833   -0.00000142   -0.00000080
     atom    2 type  1   force =     0.00000287   -0.00000010   -0.00000102
     atom    3 type  1   force =     0.00001098    0.00000408    0.00000637
     atom    4 type  1   force =    -0.00000308    0.00000103    0.00000782
     atom    5 type  2   force =     0.00000891   -0.00000252    0.00001053
     atom    6 type  1   force =    -0.00000092   -0.00001275    0.00000243
     atom    7 type  1   force =     0.00000832   -0.00001178    0.00000401
     atom    8 type  1   force =    -0.00000001    0.00000757    0.00000195
     atom    9 type  1   force =     0.00000790   -0.00001502    0.00000072
     atom   10 type  1   force =     0.00000513   -0.00001006    0.00000070
     atom   11 type  2   force =     0.00000094   -0.00001736   -0.00000719
     atom   12 type  1   force =    -0.00000458   -0.00000936   -0.00000605
     atom   13 type  2   force =    -0.00000658   -0.00000234    0.00000670
     atom   14 type  1   force =     0.00000018   -0.00000949   -0.00000991
     atom   15 type  1   force =     0.00000761   -0.00000529   -0.00000693
     atom   16 type  2   force =     0.00001438   -0.00001605    0.00000360
     atom   17 type  1   force =     0.00000461   -0.00001364   -0.00000736
     atom   18 type  1   force =     0.00000768   -0.00000909   -0.00000581
     atom   19 type  1   force =     0.00001189    0.00001137   -0.00000776
     atom   20 type  1   force =     0.00001268   -0.00000946   -0.00000574
     atom   21 type  2   force =     0.00000713   -0.00000823   -0.00000361
     atom   22 type  1   force =    -0.00000761   -0.00001205    0.00001146
     atom   23 type  2   force =    -0.00001052   -0.00000520    0.00003206
     atom   24 type  1   force =    -0.00000521    0.00000353   -0.00000241
     atom   25 type  2   force =     0.00001099    0.00000651   -0.00001167
     atom   26 type  1   force =    -0.00001477    0.00000901   -0.00001517
     atom   27 type  1   force =    -0.00002063    0.00001270   -0.00000063
     atom   28 type  2   force =     0.00000417    0.00002538   -0.00001086
     atom   29 type  1   force =    -0.00000087    0.00000827   -0.00000462
     atom   30 type  2   force =    -0.00001302   -0.00000334   -0.00000439
     atom   31 type  1   force =     0.00000965    0.00001100   -0.00000481
     atom   32 type  1   force =     0.00001145    0.00000322   -0.00000274
     atom   33 type  2   force =    -0.00000642    0.00002399   -0.00001311
     atom   34 type  1   force =     0.00000128   -0.00000058   -0.00000112
     atom   35 type  2   force =     0.00000843   -0.00000292   -0.00000474
     atom   36 type  1   force =    -0.00000016    0.00000181   -0.00000921
     atom   37 type  1   force =     0.00000207   -0.00000172   -0.00000224
     atom   38 type  3   force =    -0.00000080    0.00000001   -0.00000005
     atom   39 type  3   force =    -0.00000111   -0.00000012   -0.00000002
     atom   40 type  3   force =     0.00000166   -0.00000037   -0.00000077
     atom   41 type  3   force =     0.00000006    0.00000083    0.00000163
     atom   42 type  3   force =    -0.00000072   -0.00000053    0.00000095
     atom   43 type  3   force =     0.00000071   -0.00000128    0.00000015
     atom   44 type  3   force =    -0.00000035   -0.00000098    0.00000134
     atom   45 type  3   force =    -0.00000156    0.00000120   -0.00000013
     atom   46 type  3   force =     0.00000083    0.00000253    0.00000082
     atom   47 type  3   force =     0.00000025   -0.00000259    0.00000029
     atom   48 type  3   force =     0.00000064   -0.00000057    0.00000014
     atom   49 type  3   force =    -0.00000021   -0.00000128   -0.00000124
     atom   50 type  3   force =     0.00000032   -0.00000155    0.00000089
     atom   51 type  3   force =    -0.00000037   -0.00000084   -0.00000057
     atom   52 type  3   force =     0.00000099    0.00000047    0.00000068
     atom   53 type  3   force =     0.00000019   -0.00000062   -0.00000068
     atom   54 type  3   force =    -0.00000083   -0.00000175   -0.00000049
     atom   55 type  3   force =     0.00000103   -0.00000191   -0.00000103
     atom   56 type  3   force =     0.00000178    0.00000216   -0.00000068
     atom   57 type  3   force =     0.00000149    0.00000135   -0.00000110
     atom   58 type  3   force =     0.00000141   -0.00000137   -0.00000088
     atom   59 type  3   force =     0.00000111   -0.00000048   -0.00000098
     atom   60 type  3   force =     0.00000025    0.00000207    0.00000054
     atom   61 type  3   force =    -0.00000218   -0.00000081    0.00000246
     atom   62 type  3   force =    -0.00000043   -0.00000203    0.00000153
     atom   63 type  3   force =     0.00000040    0.00000280   -0.00000185
     atom   64 type  3   force =    -0.00000512    0.00000178    0.00000095
     atom   65 type  3   force =    -0.00000022    0.00000479    0.00000287
     atom   66 type  3   force =     0.00000046    0.00000102   -0.00000040
     atom   67 type  3   force =     0.00000037   -0.00000130    0.00000006
     atom   68 type  3   force =     0.00000103    0.00000057   -0.00000031
     atom   69 type  3   force =    -0.00000191    0.00000169   -0.00000024
     atom   70 type  3   force =     0.00000102   -0.00000173   -0.00000045
     atom   71 type  3   force =     0.00000019   -0.00000163    0.00000169

     Total force =     0.366246     Total SCF correction =     0.000098


     Computing stress (Cartesian axis) and pressure


     negative rho (up, down):  5.194E-03 0.000E+00
          total   stress  (Ry/bohr**3)                   (kbar)     P=       -2.21
  -0.00002245  -0.00001162  -0.00002776           -3.30       -1.71       -4.08
  -0.00001162  -0.00000623   0.00001706           -1.71       -0.92        2.51
  -0.00002776   0.00001706  -0.00001646           -4.08        2.51       -2.42

     kinetic stress (kbar)   1568.88    -16.81     14.00
                              -16.81   1582.31    -26.17
                               14.00    -26.17   1574.33

     local   stress (kbar)  -4509.46   -209.10    -75.18
                             -209.10  -2936.88   -857.71
                              -75.18   -857.71 -14395.08

     nonloc. stress (kbar)    224.39     -1.86      3.08
                               -1.86    223.75     -3.04
                                3.08     -3.04    225.05

     hartree stress (kbar)   2153.84     68.69     77.22
                               68.69   1455.13    343.45
                               77.22    343.45   7031.98

     exc-cor stress (kbar)   -357.14      0.47     -0.81
                                0.47   -358.01      1.18
                               -0.81      1.18   -357.88

     corecor stress (kbar)    -42.32      0.02      0.06
                                0.02    -42.31     -0.04
                                0.06     -0.04    -42.20

     ewald   stress (kbar)    958.51    156.89    -22.48
                              156.89     75.10    544.84
                              -22.48    544.84   5961.37

     hubbard stress (kbar)      0.00      0.00      0.00
                                0.00      0.00      0.00
                                0.00      0.00      0.00

     DFT-D   stress (kbar)      0.00      0.00      0.00
                                0.00      0.00      0.00
                                0.00      0.00      0.00

     XDM     stress (kbar)      0.00      0.00      0.00
                                0.00      0.00      0.00
                                0.00      0.00      0.00

     dft-nl  stress (kbar)      0.00      0.00      0.00
                                0.00      0.00      0.00
                                0.00      0.00      0.00

     TS-vdW  stress (kbar)      0.00      0.00      0.00
                                0.00      0.00      0.00
                                0.00      0.00      0.00


     Energy error            =      8.6E-02
     Gradient error          =      1.1E-01

     number of scf cycles    =   2
     number of bfgs steps    =   1

     energy   old            =    -693.1371925358 Ry
     energy   new            =    -693.2232569051 Ry

     CASE: energy  _new < energy  _old

     new trust radius        =       0.1281125060 bohr
     new conv_thr            =       0.0000000100 Ry


ATOMIC_POSITIONS (angstrom)
C             1.3349912566       -0.9507431340        0.1138869860
C             2.6092390397       -0.5518482635        0.2517321334
C             3.0909728620        0.4790367181        1.1909986853
C             2.2888953892        1.1513780599        2.0528687573
O             4.4548777865        0.6611109006        1.0741873986
C             5.1522031404        1.6004621063        1.9576735312
C             6.6663285315        1.5686329109        1.5875210694
C             7.2426569731        0.1391153994        1.6486769556
C             6.9033022196        2.1143376858        0.1655358207
C             7.3664152833        2.5121860513        2.6029828856
O             8.8377958399        2.4993361197        2.2836734418
C             9.6541226567        3.2657242760        3.0740776942
O             9.2569951483        3.9794948846        4.0361259219
C            11.0790303746        3.1804989373        2.6796158536
C            12.0216004795        3.8623668076        3.3358861857
O             6.2413422445        1.3089532572       -0.8059517073
C             6.7816314662        1.4994285686       -2.1140121707
C             5.9452080122        0.7551127767       -3.1718250098
C             5.7947610193       -0.7360040784       -2.8060917691
C             4.5262500149        1.3821751884       -3.2765223334
O             3.7724845240        1.2611941012       -2.0628538292
C             6.6833267143        0.9511326108       -4.5123670318
O             5.8807909613        0.2257157333       -5.5587630500
C             6.3651386589        0.2614244487       -6.8446556349
O             7.4015992482        0.8491669270       -7.2000562309
C             5.4932494454       -0.4794499314       -7.7496833027
C             5.7267330803       -0.4541481428       -9.0721015225
O             7.1943506211       -1.3070127763       -2.7250321250
C             7.2996458032       -2.6267193312       -2.3963976719
O             6.3312852194       -3.3956299466       -2.1721594410
C             8.7100254812       -3.0851194309       -2.3315460218
C             9.0153242229       -4.3484956068       -2.0233433144
O             7.0297790153       -0.3542785016        3.0683762377
C             7.4656970467       -1.6214499005        3.3378350799
O             8.0239557690       -2.3885974296        2.5163530854
C             7.2572683585       -2.0566599469        4.6957086028
C             7.5776856109       -3.2604794820        5.2218934119
H             1.0661563224       -1.7270904399       -0.6145822571
H             0.5057072547       -0.5327373020        0.7059260752
H             3.3463810988       -1.0424384874       -0.4023592657
H             1.2227437714        0.9476231982        2.0870641638
H             2.6822019696        1.8958619740        2.7251670171
H             5.0234494996        1.2880632099        3.0061508763
H             4.7583631892        2.6284365961        1.8267813150
H             8.3177557811        0.1327995289        1.4362466883
H             6.7173754067       -0.5284549125        0.9626457913
H             7.9912711990        2.1380386352       -0.0423850607
H             6.5173187542        3.1590696556        0.0806764351
H             7.2259997222        2.1577209825        3.6312673170
H             6.9946403059        3.5444527331        2.5133303679
H            11.3732150545        2.5467575127        1.8342772888
H            11.7872665024        4.5153283312        4.1939838467
H            13.0761813915        3.7885851483        3.0321619805
H             7.8197847855        1.1143262640       -2.1092670656
H             6.8104786117        2.5894394457       -2.3476230581
H             5.2382317178       -1.2764181151       -3.5792295577
H             5.3094154609       -0.8624031713       -1.8333370462
H             3.9419979937        0.8707962842       -4.0591716691
H             4.5961066383        2.4442668020       -3.5740473300
H             3.8537213149        2.1189918236       -1.5884718854
H             7.6909017461        0.5235559988       -4.4778739753
H             6.7386684551        2.0159807883       -4.7852226915
H             4.5984549550       -0.9962395775       -7.4288179164
H             6.6521685662        0.0075840290       -9.4944504036
H             5.1447981385       -1.0856316261       -9.7818695292
H             9.5224644991       -2.3773716682       -2.5362568265
H             8.2419805990       -5.1043173463       -1.8055468491
H            10.0649280944       -4.6726354831       -1.9760698285
H             6.8126003318       -1.4139696201        5.4095815620
H             8.0560038519       -3.9688960214        4.5826187764
H             7.3604074982       -3.4826237372        6.2622551425



     Writing output data file /expanse/lustre/scratch/lphillips1/temp_project/DPPA.save/
     NEW-OLD atomic charge density approx. for the potential

     negative rho (up, down):  5.316E-03 0.000E+00

     total cpu time spent up to now is      186.7 secs

     Self-consistent Calculation

     iteration #  1     ecut=    30.00 Ry     beta= 0.30
     Davidson diagonalization with overlap
     ethr =  1.00E-06,  avg # of iterations = 14.0

     negative rho (up, down):  5.081E-03 0.000E+00

     total cpu time spent up to now is      195.8 secs

     total energy              =    -693.24764915 Ry
     estimated scf accuracy    <       0.03614879 Ry

     iteration #  2     ecut=    30.00 Ry     beta= 0.30
     Davidson diagonalization with overlap
     ethr =  1.77E-05,  avg # of iterations =  2.0

     negative rho (up, down):  5.448E-03 0.000E+00

     total cpu time spent up to now is      200.5 secs

     total energy              =    -693.24670212 Ry
     estimated scf accuracy    <       0.00874125 Ry

     iteration #  3     ecut=    30.00 Ry     beta= 0.30
     Davidson diagonalization with overlap
     ethr =  4.28E-06,  avg # of iterations =  8.0

     negative rho (up, down):  5.892E-03 0.000E+00

     total cpu time spent up to now is      205.8 secs

     total energy              =    -693.24728452 Ry
     estimated scf accuracy    <       0.00128067 Ry

     iteration #  4     ecut=    30.00 Ry     beta= 0.30
     Davidson diagonalization with overlap
     ethr =  6.28E-07,  avg # of iterations = 11.0

     negative rho (up, down):  5.972E-03 0.000E+00
